                               Psi4 1.4a2.dev839

  ==> Input File <==

--------------------------------------------------------------------------
molecule h2o {
    O
    H 1 0.96
    H 1 0.96 2 104.5
}

set {
    basis cc-pVDZ
    scf_type pk
    e_convergence 1.0e-8
    d_convergence 1.0e-8
}

scf_e, scf_wfn = energy('SCF', return_wfn=True)
fcidump(scf_wfn, fname='H2O_INTDUMP', oe_ints=['EIGENVALUES'])
--------------------------------------------------------------------------

    Molecular point group: c2v

    Geometry (in Angstrom), charge = 0, multiplicity = 1:

       Center              X                  Y                   Z               Mass
    ------------   -----------------  -----------------  -----------------  -----------------
         O            0.000000000000     0.000000000000    -0.065775570547    15.994914619570
         H            0.000000000000    -0.759061990794     0.521953018286     1.007825032230
         H            0.000000000000     0.759061990794     0.521953018286     1.007825032230

  Charge       = 0
  Multiplicity = 1
  Basis Set: CC-PVDZ
    Blend: CC-PVDZ

    Orbital Energies [Eh]
    ---------------------

    Doubly Occupied:

       1A1   -20.550919     2A1    -1.335305     1B2    -0.697799
       3A1    -0.566090     1B1    -0.492954

  @RHF Final Energy:   -76.02665366188837

   => Energetics <=

    Nuclear Repulsion Energy =              9.1681932964243487
    One-Electron Energy =                -123.1035619927236553
    Two-Electron Energy =                  37.9087150344109318
    Total Energy =                        -76.0266536618883748

  Dipole Moment: [D]
     X:     0.0000      Y:     0.0000      Z:     2.0592     Total:     2.0592

*** Psi4 exiting successfully. Buy a developer a beer!
