                               Psi4 1.4a2.dev839

  ==> Input File <==

--------------------------------------------------------------------------
molecule CO {
    C
    O 1 1.12832
}

set {
    reference rhf
    e_convergence 1e-12
    d_convergence 1e-12
    ints_tolerance 0.0
    basis cc-pVDZ
    scf_type pk
}

e, wfn = energy("SCF", return_wfn=True)
fcidump(wfn, fname='CO.CCPVDZ.FCIDUMP', oe_ints=['EIGENVALUES'])--------------------------------------------------------------------------

Scratch directory: /tmp/

*** tstart() called on minazo
*** at Mon Jul 27 15:32:32 2020

   => Loading Basis Set <=

    Name: CC-PVDZ
    Role: ORBITAL
    Keyword: BASIS
    atoms 1 entry C          line   138 file /home/roberto/Workspace/robertodr/psi4/build_master/stage/share/psi4/basis/cc-pvdz.gbs
    atoms 2 entry O          line   198 file /home/roberto/Workspace/robertodr/psi4/build_master/stage/share/psi4/basis/cc-pvdz.gbs

         ---------------------------------------------------------
                                   SCF
               by Justin Turney, Rob Parrish, Andy Simmonett
                          and Daniel G. A. Smith
                              RHF Reference
                        1 Threads,    500 MiB Core
         ---------------------------------------------------------

  ==> Geometry <==

    Molecular point group: c2v
    Full point group: C_inf_v

    Geometry (in Angstrom), charge = 0, multiplicity = 1:

       Center              X                  Y                   Z               Mass
    ------------   -----------------  -----------------  -----------------  -----------------
         C            0.000000000000     0.000000000000    -0.644666444203    12.000000000000
         O            0.000000000000     0.000000000000     0.483653555797    15.994914619570

  Running in c2v symmetry.

  Rotational constants: A = ************  B =      1.93129  C =      1.93129 [cm^-1]
  Rotational constants: A = ************  B =  57898.67190  C =  57898.67190 [MHz]
  Nuclear repulsion =   22.511792853233125

  Charge       = 0
  Multiplicity = 1
  Electrons    = 14
  Nalpha       = 7
  Nbeta        = 7

  ==> Algorithm <==

  SCF Algorithm Type is PK.
  DIIS enabled.
  MOM disabled.
  Fractional occupation disabled.
  Guess Type is SAD.
  Energy threshold   = 1.00e-12
  Density threshold  = 1.00e-12
  Integral threshold = 0.00e+00

  ==> Primary Basis <==

  Basis Set: CC-PVDZ
    Blend: CC-PVDZ
    Number of shells: 12
    Number of basis function: 28
    Number of Cartesian functions: 30
    Spherical Harmonics?: true
    Max angular momentum: 2

  ==> Integral Setup <==

  Using in-core PK algorithm.
   Calculation information:
      Number of atoms:                   2
      Number of AO shells:              12
      Number of primitives:             44
      Number of atomic orbitals:        30
      Number of basis functions:        28

      Integral cutoff                 0.00e+00
      Number of threads:                 1

  Performing in-core PK
  Using 165242 doubles for integral storage.
  We computed 3081 shell quartets total.
  Whereas there are 3081 unique shell quartets.

  ==> DiskJK: Disk-Based J/K Matrices <==

    J tasked:                  Yes
    K tasked:                  Yes
    wK tasked:                  No
    Memory [MiB]:              375
    Schwarz Cutoff:          0E+00

    OpenMP threads:              1

  Minimum eigenvalue in the overlap matrix is 2.1735009840E-02.
  Reciprocal condition number of the overlap matrix is 7.1223552063E-03.
    Using symmetric orthogonalization.

  ==> Pre-Iterations <==

  SCF Guess: Superposition of Atomic Densities via on-the-fly atomic UHF (no occupation information).

   -------------------------
    Irrep   Nso     Nmo
   -------------------------
     A1        14      14
     A2         2       2
     B1         6       6
     B2         6       6
   -------------------------
    Total      28      28
   -------------------------

  ==> Iterations <==

                        Total Energy        Delta E     RMS |[F,P]|

   @RHF iter SAD:  -111.88853893379280   -1.11889e+02   0.00000e+00
   @RHF iter   1:  -112.72659184594465   -8.38053e-01   1.49249e-02 DIIS
   @RHF iter   2:  -112.73544513688645   -8.85329e-03   1.18726e-02 DIIS
   @RHF iter   3:  -112.74917109943343   -1.37260e-02   8.97903e-04 DIIS
   @RHF iter   4:  -112.74927866350809   -1.07564e-04   1.29287e-04 DIIS
   @RHF iter   5:  -112.74928145350573   -2.79000e-06   2.86213e-05 DIIS
   @RHF iter   6:  -112.74928159232618   -1.38820e-07   3.63093e-06 DIIS
   @RHF iter   7:  -112.74928159559781   -3.27162e-09   1.01269e-06 DIIS
   @RHF iter   8:  -112.74928159581546   -2.17653e-10   2.37307e-07 DIIS
   @RHF iter   9:  -112.74928159582598   -1.05160e-11   2.12016e-08 DIIS
   @RHF iter  10:  -112.74928159582613   -1.56319e-13   1.38844e-09 DIIS
   @RHF iter  11:  -112.74928159582608    5.68434e-14   1.31058e-10 DIIS
   @RHF iter  12:  -112.74928159582618   -9.94760e-14   1.75803e-11 DIIS
   @RHF iter  13:  -112.74928159582629   -1.13687e-13   1.43141e-12 DIIS
   @RHF iter  14:  -112.74928159582620    8.52651e-14   3.02192e-13 DIIS
  Energy and wave function converged.

  ==> Post-Iterations <==

    Orbital Energies [Eh]
    ---------------------

    Doubly Occupied:

       1A1   -20.669332     2A1   -11.366671     3A1    -1.522855
       4A1    -0.802097     1B2    -0.634366     1B1    -0.634366
       5A1    -0.548829

    Virtual:

       2B2     0.154590     2B1     0.154590     6A1     0.382568
       3B2     0.672211     3B1     0.672211     7A1     0.726501
       8A1     1.018099     9A1     1.061862     4B2     1.224431
       4B1     1.224431     1A2     1.344242    10A1     1.344242
       5B1     1.558292     5B2     1.558292    11A1     1.938993
      12A1     2.342869     2A2     2.937083    13A1     2.937083
       6B2     3.426230     6B1     3.426230    14A1     3.871720

    Final Occupation by Irrep:
             A1    A2    B1    B2
    DOCC [     5,    0,    1,    1 ]

  @RHF Final Energy:  -112.74928159582620

   => Energetics <=

    Nuclear Repulsion Energy =             22.5117928532331248
    One-Electron Energy =                -198.1651174835319011
    Two-Electron Energy =                  62.9040430344725792
    Total Energy =                       -112.7492815958262042

Computation Completed

Properties will be evaluated at   0.000000,   0.000000,   0.000000 [a0]

Properties computed using the SCF density matrix

  Nuclear Dipole Moment: [e a0]
     X:     0.0000      Y:     0.0000      Z:     0.0023

  Electronic Dipole Moment: [e a0]
     X:     0.0000      Y:     0.0000      Z:    -0.0945

  Dipole Moment: [e a0]
     X:     0.0000      Y:     0.0000      Z:    -0.0921     Total:     0.0921

  Dipole Moment: [D]
     X:     0.0000      Y:     0.0000      Z:    -0.2342     Total:     0.2342

*** tstop() called on minazo at Mon Jul 27 15:32:33 2020
Module time:
	user time   =       0.79 seconds =       0.01 minutes
	system time =       0.01 seconds =       0.00 minutes
	total time  =          1 seconds =       0.02 minutes
Total time:
	user time   =       0.79 seconds =       0.01 minutes
	system time =       0.01 seconds =       0.00 minutes
	total time  =          1 seconds =       0.02 minutes
Writing integrals in FCIDUMP format to CO.CCPVDZ.FCIDUMP
 MINTS: Wrapper to libmints.
   by Justin Turney

   Calculation information:
      Number of threads:                 1
      Number of atoms:                   2
      Number of AO shells:              12
      Number of SO shells:              12
      Number of primitives:             44
      Number of atomic orbitals:        30
      Number of basis functions:        28

      Number of irreps:                  4
      Integral cutoff                 0.00e+00
      Number of functions per irrep: [  14    2    6    6 ]

 OEINTS: Overlap, kinetic, potential, dipole, and quadrupole integrals
         stored in file 35.

      Computing two-electron integrals...done
      Computed 19387 non-zero two-electron integrals.
        Stored in file 33.

	Presorting SO-basis two-electron integrals.
	Sorting File: SO Ints (nn|nn) nbuckets = 1
	Transforming the one-electron integrals and constructing Fock matrices
	Starting first half-transformation.
	Sorting half-transformed integrals.
	First half integral transformation complete.
	Starting second half-transformation.
	Two-electron integral transformation complete.
Integral transformation complete!
Writing TEI integrals in FCIDUMP format to CO.CCPVDZ.FCIDUMP
Writing frozen core operator in FCIDUMP format to CO.CCPVDZ.FCIDUMP
Writing orbital energies in FCIDUMP format to CO.CCPVDZ.FCIDUMP
Writing frozen core + nuclear repulsion energy in FCIDUMP format to CO.CCPVDZ.FCIDUMP
Done generating CO.CCPVDZ.FCIDUMP with integrals in FCIDUMP format.

    Psi4 stopped on: Monday, 27 July 2020 03:32PM
    Psi4 wall time for execution: 0:00:01.48

*** Psi4 exiting successfully. Buy a developer a beer!
